 Q-Chem 5.4 (devel), Q-Chem, Inc., Pleasanton, CA (2021)
 Q-Chem 5.4.1 for Intel X86 EM64T Linux

User input:
--------------------------------------------------------------
$comment
 Divinylbenzene, Born-Oppenheimer molecular dynamics, RB3LYP/STO-3G
$end

$rem
 jobtype = aimd
 method = b3lyp
 basis = sto-3g
 aimd_init_veloc = thermal
 aimd_temp = 298
 time_step = 25
 aimd_steps = 35
 gui = 2
$end

$molecule
 0 1
 C                  0.27867948   -1.36683162    0.00000000
 C                  1.32303041   -0.44173575    0.00000000
 C                  1.04434506    0.92484978    0.00000000
 C                 -0.27867948    1.36683162    0.00000000
 C                 -1.32303041    0.44173575    0.00000000
 C                 -1.04434506   -0.92484978    0.00000000
 H                  2.36595443   -0.79037726    0.00000000
 H                  1.86746094    1.65407997    0.00000000
 H                 -2.36595443    0.79037726    0.00000000
 H                 -1.86746094   -1.65407997    0.00000000
 C                 -0.58659169    2.87589931    0.00000000
 C                  0.36350188    3.80076420    0.00000000
 H                 -1.65647768    3.12394312    0.00000000
 H                  0.14429560    4.87693235    0.00000000
 H                  1.43338788    3.55272039    0.00000000
 C                  0.58659169   -2.87589931    0.00000000
 C                 -0.36350188   -3.80076420    0.00000000
 H                  1.65647768   -3.12394312    0.00000000
 H                 -0.14429560   -4.87693235    0.00000000
 H                 -1.43338788   -3.55272039    0.00000000
$end
--------------------------------------------------------------

   11    -382.3003619982      8.88e-09  Convergence criterion met
 Total energy in the final basis set =     -382.3003619982

                    Orbital Energies (a.u.)
 --------------------------------------------------------------

 Alpha MOs
 -- Occupied --
-10.0179 -10.0179 -10.0076 -10.0076 -10.0067 -10.0066 -10.0056 -10.0055
 -9.9919  -9.9919  -0.8180  -0.7550  -0.7207  -0.7041  -0.6702  -0.5851
 -0.5606  -0.5319  -0.5121  -0.4619  -0.4385  -0.4104  -0.3996  -0.3971
 -0.3755  -0.3578  -0.3490  -0.3302  -0.3053  -0.2954  -0.2809  -0.2631
 -0.2160  -0.1975  -0.1601

          Ground-State Mulliken Net Atomic Charges

     Atom                 Charge (a.u.)
  ----------------------------------------
      1 C                    -0.004104
      2 C                    -0.079244
      3 C                    -0.077213
      4 C                    -0.004104
      5 C                    -0.079244
      6 C                    -0.077213
      7 H                     0.078761
      8 H                     0.079722
      9 H                     0.078761
     10 H                     0.079722
     11 C                    -0.075269
     12 C                    -0.156380
     13 H                     0.078811
     14 H                     0.078363
     15 H                     0.076553
     16 C                    -0.075269
     17 C                    -0.156380
     18 H                     0.078811
     19 H                     0.078363
     20 H                     0.076553
  ----------------------------------------
  Sum of atomic charges =     0.000000

                    Cartesian Multipole Moments
 -----------------------------------------------------------------
    Charge (ESU x 10^10)
                 0.0000
    Dipole Moment (Debye)
         X      -0.0000      Y      -0.0000      Z      -0.0000
       Tot       0.0000
    Quadrupole Moments (Debye-Ang)
        XX     -50.1432     XY       0.1106     YY     -50.9644
        XZ      -0.0000     YZ      -0.0000     ZZ     -58.5742

   13    -382.2997031355      6.02e-09  Convergence criterion met
 Total energy in the final basis set =     -382.2997031355
   13    -382.2974853446      7.21e-09  Convergence criterion met
 Total energy in the final basis set =     -382.2974853446
   13    -382.2945441061      7.85e-09  Convergence criterion met
 Total energy in the final basis set =     -382.2945441061
   13    -382.2919421240      6.94e-09  Convergence criterion met
 Total energy in the final basis set =     -382.2919421240
   13    -382.2902764521      3.84e-09  Convergence criterion met
 Total energy in the final basis set =     -382.2902764521
   14    -382.2893407862      1.86e-09  Convergence criterion met
 Total energy in the final basis set =     -382.2893407862
   14    -382.2884418912      2.03e-09  Convergence criterion met
 Total energy in the final basis set =     -382.2851446750
   14    -382.2863315811      3.03e-09  Convergence criterion met
 Total energy in the final basis set =     -382.2863315811
   14    -382.2885155022      2.97e-09  Convergence criterion met
 Total energy in the final basis set =     -382.2885155022
   14    -382.2909816744      2.92e-09  Convergence criterion met
 Total energy in the final basis set =     -382.2909816744
   13    -382.2929666437      9.98e-09  Convergence criterion met
 Total energy in the final basis set =     -382.2929666437
   13    -382.2940230332      9.41e-09  Convergence criterion met
 Total energy in the final basis set =     -382.2940230332
   13    -382.2942651659      8.86e-09  Convergence criterion met
 Total energy in the final basis set =     -382.2942651659

             Standard Nuclear Orientation (Angstroms)
    I     Atom           X                Y                Z
 ----------------------------------------------------------------
    1      C       0.2480756085    -1.4067233430    -0.0975064080
    2      C       1.3137748048    -0.4550030546    -0.0704984652
    3      C       1.0441833302     0.9162452014     0.0213966726
    4      C      -0.3174113965     1.4268010400     0.0704046311
    5      C      -1.3356063214     0.4573129523     0.1126344511
    6      C      -1.0776610091    -0.9503693014     0.0144000204
    7      H       2.3136400897    -0.8751028776    -0.1828515313
    8      H       1.8724510547     1.6495573667     0.0392639547
    9      H      -2.3542596112     0.7570784824     0.1385378491
   10      H      -1.9458661279    -1.6304809754    -0.0054405774
   11      C      -0.5945162204     2.8803039981    -0.0002672800
   12      C       0.3178744149     3.8501547680    -0.0754100711
   13      H      -1.6646495664     3.0594033158     0.0118995491
   14      H      -0.0030733216     4.8729941217    -0.1383883249
   15      H       1.3619693197     3.6738273930    -0.0832463386
   16      C       0.6451531776    -2.8610906413    -0.0428882282
   17      C      -0.2470306143    -3.8491203148     0.0919553471
   18      H       1.7093558332    -3.1034071806    -0.1845995691
   19      H       0.0752156675    -4.8779920398     0.1339145351
   20      H      -1.3271076317    -3.6272197541    -0.0174794842
 ----------------------------------------------------------------

   13    -382.2942851007      9.06e-09  Convergence criterion met
 Total energy in the final basis set =     -382.2942851007
 Total job time:  158.59s(wall), 158.36s(cpu)
        *  Thank you very much for using Q-Chem.  Have a nice day.  *
