 Q-Chem 5.4 (devel), Q-Chem, Inc., Pleasanton, CA (2021)
 Q-Chem 5.4.1 for Intel X86 EM64T Linux

User input:
--------------------------------------------------------------
$comment
 Divinylbenzene, Raman (numerical), RB3LYP/STO-3G
$end

$rem
 jobtype = freq
 method = b3lyp
 basis = sto-3g
 doraman = true
 gui = 2
$end

$molecule
 0 1
 C                  0.27867948   -1.36683162    0.00000000
 C                  1.32303041   -0.44173575    0.00000000
 C                  1.04434506    0.92484978    0.00000000
 C                 -0.27867948    1.36683162    0.00000000
 C                 -1.32303041    0.44173575    0.00000000
 C                 -1.04434506   -0.92484978    0.00000000
 H                  2.36595443   -0.79037726    0.00000000
 H                  1.86746094    1.65407997    0.00000000
 H                 -2.36595443    0.79037726    0.00000000
 H                 -1.86746094   -1.65407997    0.00000000
 C                 -0.58659169    2.87589931    0.00000000
 C                  0.36350188    3.80076420    0.00000000
 H                 -1.65647768    3.12394312    0.00000000
 H                  0.14429560    4.87693235    0.00000000
 H                  1.43338788    3.55272039    0.00000000
 C                  0.58659169   -2.87589931    0.00000000
 C                 -0.36350188   -3.80076420    0.00000000
 H                  1.65647768   -3.12394312    0.00000000
 H                 -0.14429560   -4.87693235    0.00000000
 H                 -1.43338788   -3.55272039    0.00000000
$end
--------------------------------------------------------------

             Standard Nuclear Orientation (Angstroms)
    I     Atom           X                Y                Z
 ----------------------------------------------------------------
    1      C       1.3668132833     0.2787694006    -0.0000000000
    2      C       0.4416487095     1.3230594681    -0.0000000000
    3      C      -0.9249184834     1.0442842137    -0.0000000000
    4      C      -1.3668132833    -0.2787694006     0.0000000000
    5      C      -0.4416487095    -1.3230594681     0.0000000000
    6      C       0.9249184834    -1.0442842137     0.0000000000
    7      H       0.7902216068     2.3660064222    -0.0000000000
    8      H      -1.6542028230     1.8673521173    -0.0000000000
    9      H      -0.7902216068    -2.3660064222     0.0000000000
   10      H       1.6542028230    -1.8673521173     0.0000000000
   11      C      -2.8758607131    -0.5867808885     0.0000000000
   12      C      -3.8007881058     0.3632518344    -0.0000000000
   13      H      -3.1238341368    -1.6566831945     0.0000000000
   14      H      -4.8769418324     0.1439747559    -0.0000000000
   15      H      -3.5528146821     1.4331541504    -0.0000000000
   16      C       2.8758607131     0.5867808885    -0.0000000000
   17      C       3.8007881058    -0.3632518344     0.0000000000
   18      H       3.1238341368     1.6566831945    -0.0000000000
   19      H       4.8769418324    -0.1439747559     0.0000000000
   20      H       3.5528146821    -1.4331541504     0.0000000000
 ----------------------------------------------------------------

   11    -382.3003620945      8.88e-09  Convergence criterion met
 Total energy in the final basis set =     -382.3003620945
   11    -382.3012685127      4.53e-09  Convergence criterion met
 Total energy in the final basis set =     -382.3012685127
   11    -382.3003620946      4.46e-09  Convergence criterion met
 Total energy in the final basis set =     -382.3003620946
   11    -382.3006811054      3.64e-09  Convergence criterion met
 Total energy in the final basis set =     -382.3006811054
   10    -382.3007393865      8.14e-09  Convergence criterion met
 Total energy in the final basis set =     -382.3007393865
   10    -382.3006086185      4.59e-09  Convergence criterion met
 Total energy in the final basis set =     -382.3006086185
    7    -382.3006086186      8.16e-09  Convergence criterion met
 Total energy in the final basis set =     -382.3006086186
   11    -382.3012685127      6.87e-09  Convergence criterion met
 Total energy in the final basis set =     -382.3008489467
   10    -382.3005038874      3.13e-09  Convergence criterion met
 Total energy in the final basis set =     -382.3005038874
    7    -382.3005038876      8.06e-09  Convergence criterion met
 Total energy in the final basis set =     -382.3005038876
   11    -382.3008489468      3.10e-09  Convergence criterion met
 Total energy in the final basis set =     -382.3008489468
   10    -382.3005038874      3.14e-09  Convergence criterion met
 Total energy in the final basis set =     -382.3005038874
    7    -382.3005038876      8.06e-09  Convergence criterion met
 Total energy in the final basis set =     -382.3005038876
   10    -382.3004424121      3.34e-09  Convergence criterion met
 Total energy in the final basis set =     -382.3004424121
    8    -382.3004424119      5.97e-09  Convergence criterion met
 Total energy in the final basis set =     -382.3004424119

             Orbital Energies (a.u.) and Symmetries
 --------------------------------------------------------------

 Alpha MOs, Restricted
 -- Occupied --
-10.018 -10.018 -10.008 -10.008 -10.007 -10.007 -10.006 -10.005
  1 Bu    1 Ag    2 Bu    2 Ag    3 Bu    3 Ag    4 Bu    4 Ag
 -9.992  -9.992  -0.818  -0.755  -0.721  -0.704  -0.670  -0.585
  5 Ag    5 Bu    6 Ag    6 Bu    7 Ag    7 Bu    8 Bu    8 Ag
 -0.561  -0.532  -0.512  -0.462  -0.439  -0.410  -0.400  -0.397
  9 Ag    9 Bu   10 Ag   11 Ag   10 Bu   11 Bu   12 Bu   12 Ag
 -0.376  -0.358  -0.349  -0.330  -0.305  -0.295  -0.281  -0.263
 13 Bu   14 Bu   13 Ag    1 Au   15 Bu   14 Ag   15 Ag    1 Bg
 -0.216  -0.198  -0.160
  2 Au    2 Bg    3 Bg

 Beta MOs, Restricted
 -- Occupied --
-10.018 -10.018 -10.008 -10.008 -10.007 -10.007 -10.006 -10.005
  1 Bu    1 Ag    2 Bu    2 Ag    3 Bu    3 Ag    4 Bu    4 Ag
 -9.992  -9.992  -0.818  -0.755  -0.721  -0.704  -0.670  -0.585
  5 Ag    5 Bu    6 Ag    6 Bu    7 Ag    7 Bu    8 Bu    8 Ag
 -0.561  -0.532  -0.512  -0.462  -0.439  -0.410  -0.400  -0.397
  9 Ag    9 Bu   10 Ag   11 Ag   10 Bu   11 Bu   12 Bu   12 Ag
 -0.376  -0.358  -0.349  -0.330  -0.305  -0.295  -0.281  -0.263
 13 Bu   14 Bu   13 Ag    1 Au   15 Bu   14 Ag   15 Ag    1 Bg
 -0.216  -0.198  -0.160
  2 Au    2 Bg    3 Bg

          Ground-State Mulliken Net Atomic Charges

     Atom                 Charge (a.u.)
  ----------------------------------------
      1 C                    -0.004105
      2 C                    -0.079245
      3 C                    -0.077214
      4 C                    -0.004105
      5 C                    -0.079245
      6 C                    -0.077214
      7 H                     0.078762
      8 H                     0.079723
      9 H                     0.078762
     10 H                     0.079723
     11 C                    -0.075270
     12 C                    -0.156381
     13 H                     0.078812
     14 H                     0.078364
     15 H                     0.076554
     16 C                    -0.075270
     17 C                    -0.156381
     18 H                     0.078812
     19 H                     0.078364
     20 H                     0.076554
  ----------------------------------------
  Sum of atomic charges =     0.000000

                    Cartesian Multipole Moments
 -----------------------------------------------------------------
    Charge (ESU x 10^10)
                 0.0000
    Dipole Moment (Debye)
         X      -0.0000      Y      -0.0000      Z       0.1080
       Tot       0.1080
    Quadrupole Moments (Debye-Ang)
        XX     -50.9640     XY      -0.1108     YY     -50.1430
        XZ      -0.0000     YZ      -0.0000     ZZ     -58.5743

 Frequency:      -106.88                -102.92                 161.77
 Force Cnst:      0.0185                 0.0178                 0.0380
 Red. Mass:       2.7502                 2.8541                 2.4662
 IR Intens:        0.000                  0.000                  0.419
 Frequency:       199.03                 301.38                 301.71
 Force Cnst:      0.0821                 0.1796                 0.1167
 Red. Mass:       3.5193                 3.3552                 2.1769
 IR Intens:        0.313                  0.000                  0.000
 Frequency:       402.14                 402.39                 447.23
 Force Cnst:      0.4662                 0.2979                 0.2611
 Red. Mass:       4.8929                 3.1222                 2.2153
 IR Intens:        0.000                  0.067                  5.143
 Frequency:       508.15                 580.32                 649.18
 Force Cnst:      0.5009                 0.5618                 0.5399
 Red. Mass:       3.2927                 2.8312                 2.1742
 IR Intens:        1.289                  0.000                  0.000
 Frequency:       680.27                 716.19                 716.46
 Force Cnst:      1.9041                 1.0083                 0.4803
 Red. Mass:       6.9837                 3.3363                 1.5882
 IR Intens:        0.000                  3.480                  0.220
 Frequency:       809.81                 869.09                 911.03
 Force Cnst:      1.3034                 1.9561                 0.7683
 Red. Mass:       3.3734                 4.3955                 1.5711
 IR Intens:        0.000                  0.000                 26.211
 Frequency:       920.92                1013.66                1013.73
 Force Cnst:      0.6265                 0.8161                 0.8106
 Red. Mass:       1.2537                 1.3480                 1.3387
 IR Intens:        0.000                  0.000                 35.584
 Frequency:      1038.84                1057.77                1089.98
 Force Cnst:      0.7870                 0.8697                 1.4035
 Red. Mass:       1.2378                 1.3193                 2.0051
 IR Intens:        0.000                  0.016                  9.386
 Frequency:      1102.04                1102.22                1106.66
 Force Cnst:      0.7732                 0.7742                 1.3038
 Red. Mass:       1.0806                 1.0816                 1.8069
 IR Intens:       15.172                  0.000                  1.994
 Frequency:      1107.76                1235.94                1271.17
 Force Cnst:      1.0226                 1.1602                 2.2251
 Red. Mass:       1.4144                 1.2891                 2.3372
 IR Intens:        0.000                  1.153                  0.000
 Frequency:      1272.21                1301.21                1391.34
 Force Cnst:      1.8412                 1.4158                 1.6417
 Red. Mass:       1.9308                 1.4193                 1.4394
 IR Intens:        0.131                  0.000                 17.770
 Frequency:      1391.90                1437.48                1458.95
 Force Cnst:      1.5715                 1.5205                 7.8193
 Red. Mass:       1.3768                 1.2489                 6.2350
 IR Intens:        0.000                  0.000                  0.076
 Frequency:      1544.34                1575.34                1591.42
 Force Cnst:      3.2697                 1.8015                 2.0678
 Red. Mass:       2.3269                 1.2321                 1.3858
 IR Intens:       21.620                  0.000                  1.133
 Frequency:      1673.99                1785.84                1793.60
 Force Cnst:      4.1103                10.4516                11.9903
 Red. Mass:       2.4895                 5.5622                 6.3260
 IR Intens:       19.662                  0.000                  0.000
 Frequency:      1871.80                1876.22                3388.61
 Force Cnst:      8.6147                 9.3115                 7.2172
 Red. Mass:       4.1732                 4.4896                 1.0668
 IR Intens:        2.602                  0.000                 64.295
 Frequency:      3389.07                3444.31                3448.27
 Force Cnst:      7.2190                 7.6275                 7.6440
 Red. Mass:       1.0668                 1.0913                 1.0911
 IR Intens:        0.000                  0.758                  0.000
 Frequency:      3461.37                3463.95                3467.17
 Force Cnst:      7.7673                 7.7830                 7.8008
 Red. Mass:       1.1003                 1.1009                 1.1014
 IR Intens:        7.412                  0.000                  7.300
 Frequency:      3467.34                3524.86                3524.89
 Force Cnst:      7.8036                 8.1665                 8.1673
 Red. Mass:       1.1017                 1.1156                 1.1157
 IR Intens:        0.000                  0.272                  0.000

 STANDARD THERMODYNAMIC QUANTITIES AT   298.15 K  AND     1.00 ATM

   This Molecule has  2 Imaginary Frequencies
   Zero point vibrational energy:      111.882 kcal/mol

   Atom    1 Element C  Has Mass   12.00000
   Atom    2 Element C  Has Mass   12.00000
   Atom    3 Element C  Has Mass   12.00000
   Atom    4 Element C  Has Mass   12.00000
   Atom    5 Element C  Has Mass   12.00000
   Atom    6 Element C  Has Mass   12.00000
   Atom    7 Element H  Has Mass    1.00783
   Atom    8 Element H  Has Mass    1.00783
   Atom    9 Element H  Has Mass    1.00783
   Atom   10 Element H  Has Mass    1.00783
   Atom   11 Element C  Has Mass   12.00000
   Atom   12 Element C  Has Mass   12.00000
   Atom   13 Element H  Has Mass    1.00783
   Atom   14 Element H  Has Mass    1.00783
   Atom   15 Element H  Has Mass    1.00783
   Atom   16 Element C  Has Mass   12.00000
   Atom   17 Element C  Has Mass   12.00000
   Atom   18 Element H  Has Mass    1.00783
   Atom   19 Element H  Has Mass    1.00783
   Atom   20 Element H  Has Mass    1.00783
   Molecular Mass:   130.078300 amu
   Principal axes and moments of inertia in amu*Bohr^2:
                             1           2           3
    Eigenvalues --      390.97475  2553.65604  2944.63078
          X               0.99998    -0.00602    -0.00000
          Y               0.00602     0.99998     0.00000
          Z               0.00000    -0.00000     1.00000
   Rotational Symmetry Number is   2
   The Molecule is an Asymmetric Top
   Translational Enthalpy:        0.889 kcal/mol
   Rotational Enthalpy:           0.889 kcal/mol
   Vibrational Enthalpy:        114.611 kcal/mol
   gas constant (RT):             0.592 kcal/mol
   Translational Entropy:        40.502  cal/mol.K
   Rotational Entropy:           28.087  cal/mol.K
   Vibrational Entropy:          14.095  cal/mol.K

   Total Enthalpy:              116.981 kcal/mol
   Total Entropy:                82.684  cal/mol.K
 Total job time:  110.97s(wall), 110.78s(cpu)
        *  Thank you very much for using Q-Chem.  Have a nice day.  *
