 Q-Chem 5.4 (devel), Q-Chem, Inc., Pleasanton, CA (2021)
 Q-Chem 5.4.1 for Intel X86 EM64T Linux

User input:
--------------------------------------------------------------
$comment
 MoOCl4, single point, with pseudopotentials, RB3LYP/{LanL2MB/6-31G(d)}
$end

$rem
 method = b3lyp
 basis = gen
 ecp = gen
 ecp_fit = true
 unrestricted = false
 scf_guess = gwh
 scf_algorithm = diis_gdm
 scf_convergence = 9
 thresh = 14
 max_scf_cycles = 200
 print_general_basis = true
 iprint = 100
 gui = 2
$end

$molecule
 -2 1
Mo     0.000325    -0.000325     0.051810
 O     0.000206    -0.000206     1.741504
Cl     1.711727    -1.711727    -0.659846
Cl    -1.710992    -1.711738    -0.660079
Cl    -1.711004     1.711004    -0.660311
Cl     1.711738     1.710992    -0.660079
$end

$basis
 O
 6-31g(d)
 ****
 Mo
 lanl2dz
 ****
 Cl
 lanl2dz
 ****
$end

$ecp
 Mo
 lanl2dz
 ****
 Cl
 lanl2dz
 ****
$end
--------------------------------------------------------------

             Standard Nuclear Orientation (Angstroms)
    I     Atom           X                Y                Z
 ----------------------------------------------------------------
    1      Mo     -0.0000056728     0.2956854500     0.0000000000
    2      O      -0.0000013631     1.9853794584     0.0000000000
    3      Cl     -2.4202245156    -0.4162054311     0.0000000009
    4      Cl     -0.0000044684    -0.4162035532    -2.4202355932
    5      Cl      2.4202481073    -0.4162006722    -0.0000000009
    6      Cl     -0.0000044667    -0.4162035532     2.4202355932
 ----------------------------------------------------------------

   21    -202.8068910797      3.34e-10  Convergence criterion met
 Total energy in the final basis set =     -202.8068910797

             Orbital Energies (a.u.) and Symmetries
 --------------------------------------------------------------

 Alpha MOs, Restricted
 -- Occupied --
-18.887  -2.222  -1.289  -1.225  -1.225  -0.623  -0.449  -0.437
  1 A'    2 A'    3 A'    1 A"    4 A'    5 A'    6 A'    2 A"
 -0.437  -0.435  -0.107  -0.086  -0.086  -0.046  -0.032  -0.023
  7 A'    8 A'    9 A'    3 A"   10 A'   11 A'   12 A'    4 A"
 -0.016  -0.016   0.000   0.017   0.017   0.025   0.029   0.029
  5 A"   13 A'   14 A'    6 A"   15 A'   16 A'   17 A'    7 A"
  0.047   0.119
  8 A"    9 A"

 Beta MOs, Restricted
 -- Occupied --
-18.887  -2.222  -1.289  -1.225  -1.225  -0.623  -0.449  -0.437
  1 A'    2 A'    3 A'    1 A"    4 A'    5 A'    6 A'    2 A"
 -0.437  -0.435  -0.107  -0.086  -0.086  -0.046  -0.032  -0.023
  7 A'    8 A'    9 A'    3 A"   10 A'   11 A'   12 A'    4 A"
 -0.016  -0.016   0.000   0.017   0.017   0.025   0.029   0.029
  5 A"   13 A'   14 A'    6 A"   15 A'   16 A'   17 A'    7 A"
  0.047   0.119
  8 A"    9 A"

          Ground-State Mulliken Net Atomic Charges

     Atom                 Charge (a.u.)
  ----------------------------------------
      1 Mo                    0.422861
      2 O                    -0.509742
      3 Cl                   -0.478275
      4 Cl                   -0.478279
      5 Cl                   -0.478284
      6 Cl                   -0.478279
  ----------------------------------------
  Sum of atomic charges =    -2.000000

                    Cartesian Multipole Moments
 -----------------------------------------------------------------
    Charge (ESU x 10^10)
                -9.6064
    Dipole Moment (Debye)
         X      -0.0001      Y       1.2987      Z      -0.0000
       Tot       1.2987
    Quadrupole Moments (Debye-Ang)
        XX    -114.5148     XY       0.0000     YY     -88.9858
        XZ      -0.0000     YZ      -0.0000     ZZ    -114.5148

 Total job time:  7.53s(wall), 7.51s(cpu)
        *  Thank you very much for using Q-Chem.  Have a nice day.  *
