 Q-Chem 5.4 (devel), Q-Chem, Inc., Pleasanton, CA (2021)
 Q-Chem 5.4.1 for Intel X86 EM64T Linux

User input:
--------------------------------------------------------------
$rem
 method = hf
 basis = sto-3g
 scf_convergence = 9
 thresh = 12
 symmetry = false
 sym_ignore = true
 moprop = 2
 gui = 2
$end

$molecule
0 1
N     -0.0699826875    0.3321987191    0.2821283177
C      1.3728035449    0.0970713322   -0.0129587739
C      2.0969275417   -0.0523593054    1.3682652221
O      3.1382490088   -0.6563684788    1.5380162924
C      1.9529664597    1.3136139853   -0.7956021969
H      1.8442727348    2.2050605044   -0.1801631789
H      1.3455899915    1.4594935008   -1.6885689523
C      3.4053646872    1.1270611844   -1.1918075237
C      4.4845249667    1.6235038050   -0.5598918002
N      5.6509089647    1.2379326369   -1.2284610654
H      6.6009314349    1.4112351003   -0.9028629397
C      5.2921619642    0.4356274269   -2.3131617003
C      3.8942019475    0.3557998019   -2.3263315791
C      3.2659168792   -0.3832607567   -3.3431309548
H      2.1864306677   -0.4577058843   -3.3815918670
C      4.0381762333   -1.0087512639   -4.2870993776
H      3.5696890585   -1.5824763141   -5.0755609734
C      5.4445159165   -0.9194874753   -4.2519002882
H      6.0229926396   -1.4277973542   -5.0130007062
C      6.0869576238   -0.2024044961   -3.2767702726
H      7.1656650647   -0.1287762497   -3.2458650647
H      4.5457621618    2.2425310766    0.3253979653
H     -0.5159777859    0.7478905868   -0.5487661007
H      1.5420526570   -0.8143939718   -0.5935463196
H     -0.5302278747   -0.5823989653    0.4084507634
O      1.4575846656    0.5996887308    2.4093500287
H      0.5990015339    0.8842421241    2.0047830456
$end
--------------------------------------------------------------

             Standard Nuclear Orientation (Angstroms)
    I     Atom           X                Y                Z
 ----------------------------------------------------------------
    1      N      -0.0699826875     0.3321987191     0.2821283177
    2      C       1.3728035449     0.0970713322    -0.0129587739
    3      C       2.0969275417    -0.0523593054     1.3682652221
    4      O       3.1382490088    -0.6563684788     1.5380162924
    5      C       1.9529664597     1.3136139853    -0.7956021969
    6      H       1.8442727348     2.2050605044    -0.1801631789
    7      H       1.3455899915     1.4594935008    -1.6885689523
    8      C       3.4053646872     1.1270611844    -1.1918075237
    9      C       4.4845249667     1.6235038050    -0.5598918002
   10      N       5.6509089647     1.2379326369    -1.2284610654
   11      H       6.6009314349     1.4112351003    -0.9028629397
   12      C       5.2921619642     0.4356274269    -2.3131617003
   13      C       3.8942019475     0.3557998019    -2.3263315791
   14      C       3.2659168792    -0.3832607567    -3.3431309548
   15      H       2.1864306677    -0.4577058843    -3.3815918670
   16      C       4.0381762333    -1.0087512639    -4.2870993776
   17      H       3.5696890585    -1.5824763141    -5.0755609734
   18      C       5.4445159165    -0.9194874753    -4.2519002882
   19      H       6.0229926396    -1.4277973542    -5.0130007062
   20      C       6.0869576238    -0.2024044961    -3.2767702726
   21      H       7.1656650647    -0.1287762497    -3.2458650647
   22      H       4.5457621618     2.2425310766     0.3253979653
   23      H      -0.5159777859     0.7478905868    -0.5487661007
   24      H       1.5420526570    -0.8143939718    -0.5935463196
   25      H      -0.5302278747    -0.5823989653     0.4084507634
   26      O       1.4575846656     0.5996887308     2.4093500287
   27      H       0.5990015339     0.8842421241     2.0047830456
 ----------------------------------------------------------------

   19    -673.5905711121      2.65E-10 Convergence criterion met
 Total energy in the final basis set = -673.59057111

                    Orbital Energies (a.u.)
 --------------------------------------------------------------

 Alpha MOs
 -- Occupied --
-20.2690 -20.2423 -15.3897 -15.3454 -11.1482 -11.0985 -11.0681 -11.0652
-11.0634 -11.0254 -11.0253 -11.0239 -11.0160 -11.0149 -11.0115  -1.3477
 -1.2578  -1.2200  -1.1538  -1.0745  -1.0255  -0.9593  -0.9368  -0.9133
 -0.8376  -0.7831  -0.7494  -0.7106  -0.6926  -0.6692  -0.6484  -0.6169
 -0.6023  -0.5984  -0.5808  -0.5565  -0.5428  -0.5369  -0.5241  -0.5177
 -0.4979  -0.4872  -0.4788  -0.4597  -0.4446  -0.4385  -0.4167  -0.4139
 -0.3697  -0.3285  -0.3256  -0.3067  -0.2426  -0.2257

          Ground-State Mulliken Net Atomic Charges

     Atom                 Charge (a.u.)
  ----------------------------------------
      1 N                    -0.405350
      2 C                     0.019228
      3 C                     0.298919
      4 O                    -0.260769
      5 C                    -0.106000
      6 H                     0.066640
      7 H                     0.060788
      8 C                    -0.035657
      9 C                     0.043391
     10 N                    -0.321558
     11 H                     0.216300
     12 C                     0.105706
     13 C                    -0.023661
     14 C                    -0.064892
     15 H                     0.055242
     16 C                    -0.075176
     17 H                     0.056995
     18 C                    -0.059357
     19 H                     0.060758
     20 C                    -0.082603
     21 H                     0.061584
     22 H                     0.077314
     23 H                     0.163263
     24 H                     0.065997
     25 H                     0.161111
     26 O                    -0.312238
     27 H                     0.234025
  ----------------------------------------
  Sum of atomic charges =     0.000000

                    Cartesian Multipole Moments
 -----------------------------------------------------------------
    Charge (ESU x 10^10)
                -0.0000
    Dipole Moment (Debye)
         X      -1.2075      Y       0.9547      Z      -2.2316
       Tot       2.7110
    Quadrupole Moments (Debye-Ang)
        XX     -71.1304     XY       8.1630     YY     -79.5855
        XZ      -4.0495     YZ       1.8134     ZZ     -89.9284

 Total job time:  8.97s(wall), 8.95s(cpu)
        *  Thank you very much for using Q-Chem.  Have a nice day.  *
