 Q-Chem 5.4 (devel), Q-Chem, Inc., Pleasanton, CA (2021)
 Q-Chem 5.4.1 for Intel X86 EM64T Linux

User input:
--------------------------------------------------------------
$comment
 Water, frequencies (analytic), RB3LYP/STO-3G
 with anharmonic corrections via VPT2
$end

$rem
 jobtype = freq
 method = b3lyp
 basis = sto-3g
 anhar = true
 gui = 2
$end

$molecule
 0 1
 O
 H 1 R1
 H 1 R1 2 A1

 R1=0.99
 A1=106.0
$end
--------------------------------------------------------------

    8     -75.3178467153      2.47e-12  Convergence criterion met
 Total energy in the final basis set =      -75.3178467153
 Frequency:      1860.10                3939.13                4272.66
 Force Cnst:      2.2064                 9.5583                11.6524
 Red. Mass:       1.0823                 1.0455                 1.0833
 IR Intens:        5.911                 61.120                 36.761
    6     -75.3202362426      1.90e-10  Convergence criterion met
 Total energy in the final basis set =      -75.3202362426
    6     -75.3210937967      2.02e-10  Convergence criterion met
 Total energy in the final basis set =      -75.3210937967
    6     -75.3196261844      1.26e-10  Convergence criterion met
 Total energy in the final basis set =      -75.3196261844
    6     -75.3164974488      6.99e-10  Convergence criterion met
 Total energy in the final basis set =      -75.3164974488
    7     -75.3140890362      6.42e-09  Convergence criterion met
 Total energy in the final basis set =      -75.3140890362
    7     -75.3026206398      2.67e-09  Convergence criterion met
 Total energy in the final basis set =      -75.3026206398
    7     -75.3140402686      5.09e-09  Convergence criterion met
 Total energy in the final basis set =      -75.3051577852
    7     -75.3062226881      5.10e-09  Convergence criterion met
 Total energy in the final basis set =      -75.3062226881
    6     -75.2907599206      1.20e-10  Convergence criterion met
 Total energy in the final basis set =      -75.2907599206
    7     -75.2883646958      3.29e-09  Convergence criterion met
 Total energy in the final basis set =      -75.2883646958
    7     -75.3102496266      2.64e-09  Convergence criterion met
 Total energy in the final basis set =      -75.3102496266
    7     -75.2986818624      1.68e-09  Convergence criterion met
 Total energy in the final basis set =      -75.2986818624
    7     -75.3052260777      3.56e-09  Convergence criterion met
 Total energy in the final basis set =      -75.3052260777
    7     -75.2909617066      2.47e-09  Convergence criterion met
 Total energy in the final basis set =      -75.2909617066

                    Orbital Energies (a.u.)
 --------------------------------------------------------------

 Alpha MOs
 -- Occupied --
-18.8336  -0.9450  -0.4462  -0.2260  -0.1450

          Ground-State Mulliken Net Atomic Charges

     Atom                 Charge (a.u.)
  ----------------------------------------
      1 O                    -0.386400
      2 H                     0.228288
      3 H                     0.158112
  ----------------------------------------
  Sum of atomic charges =     0.000000

                    Cartesian Multipole Moments
 -----------------------------------------------------------------
    Charge (ESU x 10^10)
                -0.0000
    Dipole Moment (Debye)
         X      -0.0906      Y      -0.0000      Z      -1.6898
       Tot       1.6922
    Quadrupole Moments (Debye-Ang)
        XX      -4.3181     XY       0.0000     YY      -6.0864
        XZ      -0.1036     YZ       0.0000     ZZ      -5.4146

             Standard Nuclear Orientation (Angstroms)
    I     Atom           X                Y                Z
 ----------------------------------------------------------------
    1      O      -0.0000000000     0.0000000000     0.1191593746
    2      H      -0.7906491549    -0.0000000000    -0.4766374983
    3      H       0.7906491549    -0.0000000000    -0.4766374983
 ----------------------------------------------------------------

 Frequency:      1860.10                3939.13                4272.66
 Force Cnst:      2.2064                 9.5583                11.6524
 Red. Mass:       1.0823                 1.0455                 1.0833
 IR Intens:        5.911                 61.120                 36.761

 STANDARD THERMODYNAMIC QUANTITIES FOR ANHARMONIC VIBRATION -- VPT2

   Zero point vibrational energy:       13.945 kcal/mol

   Vibrational Enthalpy:         13.946 kcal/mol
   Vibrational Entropy:           0.003  cal/mol.K

   Total Enthalpy:               16.316 kcal/mol
   Total Entropy:                45.246  cal/mol.K

 Total job time:  6.87s(wall), 6.85s(cpu)
        *  Thank you very much for using Q-Chem.  Have a nice day.  *
