 Gaussian 09, Revision D.01,
 Gaussian 09:  ES64L-G09RevD.01 24-Apr-2013

 --------------------------------------
 #p bp86/sto-3g empiricaldispersion=gd3
 --------------------------------------

 ---------------------
 dispersion comparison
 ---------------------
 Symbolic Z-matrix:
 Charge =  0 Multiplicity = 1

                         Standard orientation:
 ---------------------------------------------------------------------
 Center     Atomic      Atomic             Coordinates (Angstroms)
 Number     Number       Type             X           Y           Z
 ---------------------------------------------------------------------
      1          6           0        1.208103    0.697409    0.000000
      2          6           0       -0.000235    1.394826    0.000000
      3          6           0       -1.208103    0.697490    0.000000
      4          6           0       -1.208103   -0.697409    0.000000
      5          6           0        0.000235   -1.394826    0.000000
      6          6           0        1.208103   -0.697490    0.000000
      7          1           0       -0.000015    2.494481    0.000000
      8          1           0       -2.160567    1.247133    0.000000
      9          1           0        0.000015   -2.494481    0.000000
     10          1           0        2.160567   -1.247133    0.000000
     11          6           0       -2.541850   -1.467612    0.000000
     12          6           0       -3.720103   -0.859523    0.000000
     13          1           0       -2.438113   -2.560965    0.000000
     14          1           0       -4.671363   -1.408424    0.000000
     15          1           0       -3.823839    0.233830    0.000000
     16          6           0        2.541850    1.467612    0.000000
     17          6           0        3.720103    0.859523    0.000000
     18          1           0        2.438113    2.560965    0.000000
     19          1           0        4.671363    1.408424    0.000000
     20          1           0        3.823839   -0.233830    0.000000
 ---------------------------------------------------------------------

 SCF Done:  E(RB-P86) =  -382.328052263     A.U. after   14 cycles

 The electronic state is 1-AG.
 Alpha  occ. eigenvalues --   -9.74350  -9.74344  -9.73224  -9.73224  -9.73175
 Alpha  occ. eigenvalues --   -9.73173  -9.73057  -9.73045  -9.71621  -9.71621
 Alpha  occ. eigenvalues --   -0.74370  -0.68380  -0.65131  -0.63622  -0.60399
 Alpha  occ. eigenvalues --   -0.52658  -0.50325  -0.47637  -0.45880  -0.41198
 Alpha  occ. eigenvalues --   -0.38963  -0.36217  -0.35236  -0.34941  -0.32966
 Alpha  occ. eigenvalues --   -0.31183  -0.30420  -0.28853  -0.26361  -0.25363
 Alpha  occ. eigenvalues --   -0.24068  -0.22759  -0.18251  -0.16899  -0.13429
 Alpha virt. eigenvalues --    0.01821   0.05623   0.07693   0.13891   0.22981
 Alpha virt. eigenvalues --    0.27280   0.28281   0.31661   0.32206   0.36196
 Alpha virt. eigenvalues --    0.36495   0.37089   0.39274   0.41584   0.44133

 Mulliken charges:
               1
     1  C   -0.005596
     2  C   -0.083573
     3  C   -0.081356
     4  C   -0.005596
     5  C   -0.083573
     6  C   -0.081356
     7  H    0.083584
     8  H    0.084258
     9  H    0.083584
    10  H    0.084258
    11  C   -0.080569
    12  C   -0.163973
    13  H    0.083456
    14  H    0.082983
    15  H    0.080785
    16  C   -0.080569
    17  C   -0.163973
    18  H    0.083456
    19  H    0.082983
    20  H    0.080785
 Sum of Mulliken charges =   0.00000

 Dipole moment (field-independent basis, Debye):
    X=              0.0000    Y=              0.0000    Z=              0.0000  Tot=              0.0000
 Quadrupole moment (field-independent basis, Debye-Ang):
   XX=            -50.3584   YY=            -49.9717   ZZ=            -58.5983
   XY=             -0.3075   XZ=              0.0000   YZ=              0.0000

 Normal termination of Gaussian 09 at Mon Jun 29 09:51:05 2020.
