 Gaussian 16, Revision C.01,
 Gaussian 16:  ES64L-G16RevC.01  3-Jul-2019

 ----------------------------
 #p b3lyp/sto-3g freq=hpmodes
 ----------------------------

 ------------
 dvb_gopt.out
 ------------
 Symbolic Z-matrix:
 Charge =  0 Multiplicity = 1

                         Standard orientation:
 ---------------------------------------------------------------------
 Center     Atomic      Atomic             Coordinates (Angstroms)
 Number     Number       Type             X           Y           Z
 ---------------------------------------------------------------------
      1          6           0        0.269440   -1.410120    0.000000
      2          6           0       -1.064790   -0.920660    0.000000
      3          6           0       -1.325390    0.457060    0.000000
      4          6           0       -0.269440    1.410120    0.000000
      5          6           0        1.064790    0.920660    0.000000
      6          1           0       -1.904470   -1.627520    0.000000
      7          1           0       -2.364760    0.813040    0.000000
      8          1           0        1.904470    1.627520    0.000000
      9          6           0       -0.603690    2.869960    0.000000
     10          6           0        0.269440    3.892070    0.000000
     11          1           0        1.355180    3.742310    0.000000
     12          1           0       -1.681860    3.090150    0.000000
     13          1           0       -0.074250    4.933030    0.000000
     14          6           0        0.603690   -2.869960    0.000000
     15          1           0        1.681860   -3.090150    0.000000
     16          6           0       -0.269440   -3.892070    0.000000
     17          1           0       -1.355180   -3.742310    0.000000
     18          1           0        0.074250   -4.933030    0.000000
     19          6           0        1.325390   -0.457060    0.000000
     20          1           0        2.364760   -0.813040    0.000000
 ---------------------------------------------------------------------

 SCF Done:  E(RB3LYP) =  -382.308266601     A.U. after   12 cycles

 The electronic state is 1-AG.
 Alpha  occ. eigenvalues --  -10.02022 -10.02017 -10.00811 -10.00811 -10.00679
 Alpha  occ. eigenvalues --  -10.00678 -10.00605 -10.00591  -9.99233  -9.99233
 Alpha  occ. eigenvalues --   -0.80951  -0.75398  -0.71797  -0.69979  -0.66751
 Alpha  occ. eigenvalues --   -0.58869  -0.55892  -0.53166  -0.51018  -0.45744
 Alpha  occ. eigenvalues --   -0.43936  -0.41061  -0.39795  -0.39607  -0.37397
 Alpha  occ. eigenvalues --   -0.35115  -0.34729  -0.32451  -0.31125  -0.29279
 Alpha  occ. eigenvalues --   -0.28745  -0.26354  -0.21245  -0.19505  -0.15308
 Alpha virt. eigenvalues --    0.03742   0.09037   0.11061   0.18220   0.27253
 Alpha virt. eigenvalues --    0.33223   0.34074   0.37937   0.38145   0.41096
 Alpha virt. eigenvalues --    0.41196   0.42674   0.43962   0.45274   0.47826

 Mulliken charges:
               1
     1  C   -0.004503
     2  C   -0.077165
     3  C   -0.076614
     4  C   -0.004503
     5  C   -0.077165
     6  H    0.079224
     7  H    0.077694
     8  H    0.079224
     9  C   -0.076381
    10  C   -0.154810
    11  H    0.076326
    12  H    0.076885
    13  H    0.079343
    14  C   -0.076381
    15  H    0.076885
    16  C   -0.154810
    17  H    0.076326
    18  H    0.079343
    19  C   -0.076614
    20  H    0.077694
 Sum of Mulliken charges =   0.00000

 Dipole moment (field-independent basis, Debye):
    X=              0.0000    Y=              0.0000    Z=              0.0000  Tot=              0.0000
 Quadrupole moment (field-independent basis, Debye-Ang):
   XX=            -50.2214   YY=            -50.7162   ZZ=            -58.6254
   XY=             -0.0592   XZ=              0.0000   YZ=              0.0000

  Exact polarizability:      68.238       6.777     143.018       0.000       0.000      11.343
 Approx polarizability:     124.064      22.163     223.863       0.000       0.000      13.774

                      1                      2                      3
                     AU                     BG                     AU
 Frequencies --     53.2048                84.7674               149.4365
 Red. masses --      3.2273                 2.4840                 2.0821
 Frc consts  --      0.0054                 0.0105                 0.0274
 IR Inten    --      0.0342                 0.0000                 0.3729

                      4                      5                      6
                     BU                     AG                     BG
 Frequencies --    179.3430               263.3765               298.4284
 Red. masses --      3.3849                 3.2245                 2.3482
 Frc consts  --      0.0641                 0.1318                 0.1232
 IR Inten    --      0.2687                 0.0000                 0.0000

                      7                      8                      9
                     AG                     AU                     AU
 Frequencies --    407.5764               424.1441               467.7605
 Red. masses --      4.7967                 3.0367                 2.2517
 Frc consts  --      0.4695                 0.3219                 0.2903
 IR Inten    --      0.0000                 0.1002                 5.8053

                     10                     11                     12
                     BU                     AG                     BG
 Frequencies --    486.7092               578.5324               656.3373
 Red. masses --      3.2428                 2.8270                 2.0740
 Frc consts  --      0.4526                 0.5575                 0.5264
 IR Inten    --      1.8994                 0.0000                 0.0000

                     13                     14                     15
                     AG                     AU                     BU
 Frequencies --    673.6041               706.3772               735.1556
 Red. masses --      6.9110                 1.4888                 3.1842
 Frc consts  --      1.8476                 0.4377                 1.0139
 IR Inten    --      0.0000                 0.4348                 4.3447

                     16                     17                     18
                     BG                     AG                     BG
 Frequencies --    810.2018               862.7006               895.2585
 Red. masses --      3.3323                 4.4427                 1.2563
 Frc consts  --      1.2888                 1.9481                 0.5932
 IR Inten    --      0.0000                 0.0000                 0.0000

                     19                     20                     21
                     AU                     BG                     AU
 Frequencies --    897.2808               980.4221               980.5301
 Red. masses --      1.6958                 1.3644                 1.3670
 Frc consts  --      0.8044                 0.7727                 0.7743
 IR Inten    --     26.3703                 0.0000                36.2301

                     22                     23                     24
                     BG                     AU                     BU
 Frequencies --   1019.6033              1038.1230              1073.4654
 Red. masses --      1.2586                 1.3328                 2.9162
 Frc consts  --      0.7709                 0.8463                 1.9799
 IR Inten    --      0.0000                 0.0157                 0.5771

                     25                     26                     27
                     BU                     AU                     BG
 Frequencies --   1101.5207              1106.0060              1106.1599
 Red. masses --      1.4460                 1.0901                 1.0915
 Frc consts  --      1.0337                 0.7857                 0.7869
 IR Inten    --      8.9538                13.3104                 0.0000

                     28                     29                     30
                     AG                     BU                     AG
 Frequencies --   1109.9573              1204.9341              1262.9239
 Red. masses --      1.5055                 1.3530                 1.2423
 Frc consts  --      1.0928                 1.1574                 1.1674
 IR Inten    --      0.0000                 1.4942                 0.0000

                     31                     32                     33
                     BU                     AG                     BU
 Frequencies --   1284.8855              1296.1944              1351.4031
 Red. masses --      2.3327                 2.8287                 5.2221
 Frc consts  --      2.2690                 2.8001                 5.6191
 IR Inten    --      0.0826                 0.0000                 9.4698

                     34                     35                     36
                     AG                     BU                     AG
 Frequencies --   1398.7612              1420.6939              1426.7892
 Red. masses --      1.4216                 1.3384                 1.2532
 Frc consts  --      1.6388                 1.5916                 1.5031
 IR Inten    --      0.0000                 8.2414                 0.0000

                     37                     38                     39
                     BU                     AG                     BU
 Frequencies --   1515.0556              1565.6784              1575.3248
 Red. masses --      2.5522                 1.3010                 1.2967
 Frc consts  --      3.4516                 1.8790                 1.8960
 IR Inten    --     18.8004                 0.0000                 0.5558

                     40                     41                     42
                     BU                     AG                     AG
 Frequencies --   1641.3085              1691.3786              1740.0894
 Red. masses --      2.4971                 5.1086                 5.6181
 Frc consts  --      3.9634                 8.6106                10.0226
 IR Inten    --     15.0495                 0.0000                 0.0000

                     43                     44                     45
                     AG                     BU                     BU
 Frequencies --   1814.4672              1815.3477              3396.3880
 Red. masses --      3.9778                 3.9411                 1.0630
 Frc consts  --      7.7159                 7.6521                 7.2245
 IR Inten    --      0.0000                 1.4865                98.3044

                     46                     47                     48
                     AG                     BU                     AG
 Frequencies --   3397.1060              3437.7537              3437.7999
 Red. masses --      1.0629                 1.0978                 1.0978
 Frc consts  --      7.2272                 7.6440                 7.6443
 IR Inten    --      0.0000                 4.4126                 0.0000

                     49                     50                     51
                     BU                     AG                     BU
 Frequencies --   3447.2259              3450.7467              3467.1212
 Red. masses --      1.0917                 1.0916                 1.0986
 Frc consts  --      7.6434                 7.6582                 7.7808
 IR Inten    --      0.7836                 0.0000                 5.9015

                     52                     53                     54
                     AG                     BU                     AG
 Frequencies --   3470.0597              3548.2722              3548.2843
 Red. masses --      1.0995                 1.1182                 1.1182
 Frc consts  --      7.8005                 8.2951                 8.2951
 IR Inten    --      0.0000                 0.0039                 0.0000

 - Thermochemistry -
 -------------------
 Temperature   298.150 Kelvin.  Pressure   1.00000 Atm.
 Atom     1 has atomic number  6 and mass  12.00000

 Molecular mass:   130.07825 amu.
 Principal axes and moments of inertia in atomic units:
                           1         2         3
     Eigenvalues --   390.077302635.018623025.09592
           X           -0.02413   0.99971   0.00000
           Y            0.99971   0.02413   0.00000
           Z            0.00000   0.00000   1.00000
 This molecule is an asymmetric top.
 Rotational symmetry number  2.
 Rotational temperatures (Kelvin)      0.22204     0.03287     0.02863
 Rotational constants (GHZ):           4.62662     0.68491     0.59659
 Zero-point vibrational energy     465060.1 (Joules/Mol)
                                  111.15203 (Kcal/Mol)
 Warning -- explicit consideration of  11 degrees of freedom as
           vibrations may cause significant error
 Vibrational temperatures:     76.55   121.96   215.01   258.03   378.94
          (Kelvin)            429.37   586.41   610.25   673.00   700.27
                              832.38   944.32   969.17  1016.32  1057.72
                             1165.70  1241.23  1288.08  1290.99  1410.61
                             1410.76  1466.98  1493.63  1544.48  1584.84
                             1591.30  1591.52  1596.98  1733.63  1817.07
                             1848.66  1864.93  1944.37  2012.51  2044.06
                             2052.83  2179.83  2252.66  2266.54  2361.48
                             2433.52  2503.60  2610.61  2611.88  4886.64
                             4887.68  4946.16  4946.23  4959.79  4964.85
                             4988.41  4992.64  5105.17  5105.19

 Zero-point correction=                           0.177132 (Hartree/Particle)
 Thermal correction to Energy=                    0.186015
 Thermal correction to Enthalpy=                  0.186960
 Thermal correction to Gibbs Free Energy=         0.143352
 Sum of electronic and zero-point Energies=           -382.131135
 Sum of electronic and thermal Energies=              -382.122251
 Sum of electronic and thermal Enthalpies=            -382.121307
 Sum of electronic and thermal Free Energies=         -382.164914

                     E (Thermal)             CV                S
                      KCal/Mol        Cal/Mol-Kelvin    Cal/Mol-Kelvin
 Total                  116.726             33.556             91.780
 Electronic               0.000              0.000              0.000
 Translational            0.889              2.981             40.502
 Rotational               0.889              2.981             28.143
 Vibrational            114.949             27.594             23.134
 Vibration     1          0.596              1.976              4.695
 Vibration     2          0.601              1.960              3.777
 Vibration     3          0.618              1.903              2.679
 Vibration     4          0.629              1.868              2.335
 Vibration     5          0.670              1.740              1.639
 Vibration     6          0.692              1.677              1.426
 Vibration     7          0.772              1.454              0.935
 Vibration     8          0.786              1.418              0.878
 Vibration     9          0.825              1.322              0.744
 Vibration    10          0.843              1.280              0.692
 Vibration    11          0.935              1.078              0.488

 Optimization completed.
    -- Stationary point found.
 Normal termination of Gaussian 16 at Wed Dec  1 08:53:11 2021.
